;
;	File 'topol.top' was generated
;	By user: unknown (140814277)
;	On host: node2412.oscar.ccv.brown.edu
;	At date: Sat Nov 29 18:28:08 2025
;
;	This is a standalone topology file
;
;	Created by:
;	                    :-) GROMACS - gmx pdb2gmx, 2024.3 (-:
;	
;	Executable:   /users/cdohert4/gromacs-2024.3/bin/gmx
;	Data prefix:  /users/cdohert4/gromacs-2024.3
;	Working dir:  /oscar/home/cdohert4/Experimental Data/SOX2 Interaction with ES2 -- Test 4
;	Command line:
;	  gmx pdb2gmx -f SOX2_E4_clean.pdb -o SOX2_E4_processed.gro -water tip3p -ignh
;	Force field was read from current directory or a relative path - path added.
;

; Include forcefield parameters
#include "./amber14sb_OL15.ff/forcefield.itp"

; Include chain topologies
#include "topol_Protein_chain_A.itp"
#include "topol_RNA_chain_B.itp"

; Include water topology
#include "./amber14sb_OL15.ff/tip3p.itp"

#ifdef POSRES_WATER
; Position restraint for each water oxygen
[ position_restraints ]
;  i funct       fcx        fcy        fcz
   1    1       1000       1000       1000
#endif

; Include topology for ions
#include "./amber14sb_OL15.ff/ions.itp"

[ system ]
; Name
Protein in water

[ molecules ]
; Compound        #mols
Protein_chain_A     1
RNA_chain_B         1
SOL         541830
NA               338
